LAMMPS data file from water.psf & init.dcd fr 0 (1 frs). 18 April, 2016 at 17:43.
 4360 atoms
 0 bonds
 0 angles
 0 dihedrals
 0 impropers
 1 atom types
 0 bond types
 0 angle types
 0 dihedral types
 0 improper types
 -24.7545128 23.9453487  xlo xhi
 -25.0182095 47.5346451  ylo yhi
 -24.3540306 24.3458290  zlo zhi

# Pair Coeffs
#
# 1  AW

 Masses

 1 18.015280 # AW

 Atoms

1 1 23.089738845825195 -22.093265533447266 12.161880493164062  # TIP4 OH2 AW
2 1 -6.882654666900635 14.784159660339355 2.445491313934326  # TIP4 OH2 AW
3 1 5.352174758911133 -8.047353744506836 24.13208770751953  # TIP4 OH2 AW
4 1 1.827744722366333 -1.045345664024353 -7.5390472412109375  # TIP4 OH2 AW
5 1 -18.89385414123535 -20.935237884521484 21.417043685913086  # TIP4 OH2 AW
6 1 1.644356608390808 16.82586669921875 17.978776931762695  # TIP4 OH2 AW
7 1 6.6432294845581055 21.316118240356445 7.0194220542907715  # TIP4 OH2 AW
8 1 -23.770048141479492 -11.07160758972168 -13.907454490661621  # TIP4 OH2 AW
9 1 -13.45500659942627 4.9395952224731445 4.608382701873779  # TIP4 OH2 AW
10 1 0.1634005457162857 -7.628596305847168 14.990038871765137  # TIP4 OH2 AW
11 1 6.232761383056641 -11.020503044128418 16.957746505737305  # TIP4 OH2 AW
12 1 21.245752334594727 -6.6290740966796875 -20.309085845947266  # TIP4 OH2 AW
13 1 -20.80030632019043 -14.425248146057129 14.091754913330078  # TIP4 OH2 AW
14 1 9.934351921081543 2.091221570968628 -7.717988967895508  # TIP4 OH2 AW
15 1 -4.083405494689941 -0.5048296451568604 -13.788177490234375  # TIP4 OH2 AW
16 1 -19.193960189819336 -0.2902257442474365 5.80787992477417  # TIP4 OH2 AW
17 1 16.56103515625 -8.845355033874512 17.6855525970459  # TIP4 OH2 AW
18 1 20.534011840820312 24.057146072387695 2.972940683364868  # TIP4 OH2 AW
19 1 -15.105463981628418 21.797163009643555 19.73839569091797  # TIP4 OH2 AW
20 1 20.384920120239258 2.794240713119507 20.367258071899414  # TIP4 OH2 AW
21 1 -22.25385093688965 -0.44289228320121765 11.704390525817871  # TIP4 OH2 AW
22 1 -11.051092147827148 -0.5285958647727966 -16.159000396728516  # TIP4 OH2 AW
23 1 -11.098438262939453 -22.98647117614746 21.84418296813965  # TIP4 OH2 AW
24 1 10.238295555114746 19.260929107666016 -4.281771659851074  # TIP4 OH2 AW
25 1 6.296721935272217 23.567893981933594 16.293075561523438  # TIP4 OH2 AW
26 1 -1.7608001232147217 15.827189445495605 10.101268768310547  # TIP4 OH2 AW
27 1 -19.09213638305664 8.40485954284668 -1.6462804079055786  # TIP4 OH2 AW
28 1 -20.114294052124023 6.987825870513916 4.2383880615234375  # TIP4 OH2 AW
29 1 -8.080013275146484 -11.754691123962402 -9.918839454650879  # TIP4 OH2 AW
30 1 21.754423141479492 -2.7405240535736084 -22.48586082458496  # TIP4 OH2 AW
31 1 3.891010284423828 -16.135894775390625 -19.791505813598633  # TIP4 OH2 AW
32 1 -9.882505416870117 12.477684020996094 -20.308515548706055  # TIP4 OH2 AW
33 1 0.9099737405776978 1.807977318763733 -13.267633438110352  # TIP4 OH2 AW
34 1 -20.756023406982422 -23.180509567260742 15.182759284973145  # TIP4 OH2 AW
35 1 20.3461856842041 5.4681396484375 13.019755363464355  # TIP4 OH2 AW
36 1 -14.111551284790039 19.621431350708008 -18.032289505004883  # TIP4 OH2 AW
37 1 -10.809983253479004 -6.222836971282959 -2.7300901412963867  # TIP4 OH2 AW
38 1 19.96341896057129 10.845329284667969 8.941874504089355  # TIP4 OH2 AW
39 1 1.272350788116455 8.626812934875488 -24.221885681152344  # TIP4 OH2 AW
40 1 -1.0680148601531982 0.6293754577636719 -18.145423889160156  # TIP4 OH2 AW
41 1 5.561890602111816 -6.774464130401611 -11.283077239990234  # TIP4 OH2 AW
42 1 -17.77875328063965 -15.883816719055176 1.9150570631027222  # TIP4 OH2 AW
43 1 -13.79213809967041 -4.187894344329834 1.9024744033813477  # TIP4 OH2 AW
44 1 -1.6213276386260986 -17.47167205810547 -7.95822286605835  # TIP4 OH2 AW
45 1 -10.011627197265625 13.033575057983398 -3.299187421798706  # TIP4 OH2 AW
46 1 -22.51101303100586 -19.58440589904785 17.888471603393555  # TIP4 OH2 AW
47 1 -5.521984100341797 4.229109287261963 20.16684341430664  # TIP4 OH2 AW
48 1 7.490882873535156 4.788389205932617 -7.849762916564941  # TIP4 OH2 AW
49 1 21.718421936035156 12.433609008789062 4.76345682144165  # TIP4 OH2 AW
50 1 14.832427024841309 -20.499202728271484 11.470451354980469  # TIP4 OH2 AW
51 1 -8.280538558959961 -3.018440008163452 18.637664794921875  # TIP4 OH2 AW
52 1 14.547849655151367 2.6476125717163086 -15.283238410949707  # TIP4 OH2 AW
53 1 -2.5272915363311768 21.545154571533203 8.077899932861328  # TIP4 OH2 AW
54 1 -16.758010864257812 -9.492603302001953 -11.913331985473633  # TIP4 OH2 AW
55 1 -6.101705551147461 -2.9296131134033203 -16.37559700012207  # TIP4 OH2 AW
56 1 -14.787278175354004 6.66048002243042 2.507598400115967  # TIP4 OH2 AW
57 1 -15.583056449890137 -9.00461483001709 -3.63651442527771  # TIP4 OH2 AW
58 1 2.21683406829834 -21.06368064880371 -3.4681036472320557  # TIP4 OH2 AW
59 1 -20.45435333251953 10.971750259399414 19.410869598388672  # TIP4 OH2 AW
60 1 -0.6027989387512207 16.025794982910156 -22.29972267150879  # TIP4 OH2 AW
61 1 -12.215473175048828 -0.01995178870856762 1.0173790454864502  # TIP4 OH2 AW
62 1 -1.829856038093567 -10.550432205200195 16.97093963623047  # TIP4 OH2 AW
63 1 -0.26164552569389343 10.147976875305176 -16.291589736938477  # TIP4 OH2 AW
64 1 -10.335731506347656 -1.9557660818099976 1.6730371713638306  # TIP4 OH2 AW
65 1 18.637367248535156 -2.323122501373291 8.893922805786133  # TIP4 OH2 AW
66 1 -11.549088478088379 -15.763591766357422 -12.818568229675293  # TIP4 OH2 AW
67 1 -14.053349494934082 22.77086067199707 -12.071874618530273  # TIP4 OH2 AW
68 1 -1.3538869619369507 13.921762466430664 -20.396944046020508  # TIP4 OH2 AW
69 1 -7.874016761779785 13.740846633911133 9.129928588867188  # TIP4 OH2 AW
70 1 -16.36131477355957 14.29749584197998 -15.575791358947754  # TIP4 OH2 AW
71 1 -10.624027252197266 3.9967920780181885 1.0487643480300903  # TIP4 OH2 AW
72 1 23.34566879272461 15.458796501159668 19.234933853149414  # TIP4 OH2 AW
73 1 -12.62085247039795 -17.859878540039062 14.978857040405273  # TIP4 OH2 AW
74 1 -0.7355616092681885 13.201430320739746 -13.589119911193848  # TIP4 OH2 AW
75 1 -18.85004234313965 2.515994071960449 -12.638761520385742  # TIP4 OH2 AW
76 1 -23.242958068847656 -2.262881278991699 1.0186011791229248  # TIP4 OH2 AW
77 1 13.441108703613281 -22.044532775878906 -1.9549530744552612  # TIP4 OH2 AW
78 1 -18.869380950927734 13.268193244934082 -8.525086402893066  # TIP4 OH2 AW
79 1 -23.091859817504883 -1.2940338850021362 -16.095630645751953  # TIP4 OH2 AW
80 1 -13.960494041442871 14.402026176452637 -13.486737251281738  # TIP4 OH2 AW
81 1 0.3534044623374939 -10.31450366973877 -15.179330825805664  # TIP4 OH2 AW
82 1 5.354048252105713 -22.87444305419922 3.6921608448028564  # TIP4 OH2 AW
83 1 -22.417686462402344 11.385550498962402 -0.46317142248153687  # TIP4 OH2 AW
84 1 21.346521377563477 21.36746597290039 21.463176727294922  # TIP4 OH2 AW
85 1 5.6706743240356445 13.973451614379883 -2.180755138397217  # TIP4 OH2 AW
86 1 12.524031639099121 7.106656074523926 14.707710266113281  # TIP4 OH2 AW
87 1 0.885564923286438 17.481271743774414 -8.265110969543457  # TIP4 OH2 AW
88 1 -10.276689529418945 20.948707580566406 -19.885845184326172  # TIP4 OH2 AW
89 1 -10.383938789367676 -3.8127880096435547 22.772216796875  # TIP4 OH2 AW
90 1 8.385262489318848 -4.045092582702637 5.969594955444336  # TIP4 OH2 AW
91 1 16.907360076904297 18.032577514648438 -20.65289878845215  # TIP4 OH2 AW
92 1 16.571537017822266 -24.031982421875 -0.5373193621635437  # TIP4 OH2 AW
93 1 -20.810640335083008 -21.923255920410156 17.789396286010742  # TIP4 OH2 AW
94 1 21.776504516601562 2.555171489715576 -11.708027839660645  # TIP4 OH2 AW
95 1 3.0661089420318604 -4.348323345184326 -12.472922325134277  # TIP4 OH2 AW
96 1 -23.691654205322266 -16.55034828186035 21.791080474853516  # TIP4 OH2 AW
97 1 -7.495038986206055 -14.122749328613281 -21.741275787353516  # TIP4 OH2 AW
98 1 -3.5743470191955566 15.857033729553223 12.38025951385498  # TIP4 OH2 AW
99 1 16.770483016967773 -21.659635543823242 -5.62909460067749  # TIP4 OH2 AW
100 1 -23.514665603637695 -15.113546371459961 -24.13064956665039  # TIP4 OH2 AW
101 1 1.2521737813949585 -19.548799514770508 -9.286214828491211  # TIP4 OH2 AW
102 1 4.152099609375 3.8628671169281006 4.769975185394287  # TIP4 OH2 AW
103 1 20.210107803344727 24.05630111694336 22.053436279296875  # TIP4 OH2 AW
104 1 -14.070477485656738 -21.96213722229004 -10.60167121887207  # TIP4 OH2 AW
105 1 4.495341777801514 17.671262741088867 -18.529216766357422  # TIP4 OH2 AW
106 1 15.502874374389648 3.1540942192077637 8.184659957885742  # TIP4 OH2 AW
107 1 20.944217681884766 -2.7685351371765137 19.356882095336914  # TIP4 OH2 AW
108 1 -10.548787117004395 2.575249433517456 23.66823959350586  # TIP4 OH2 AW
109 1 -12.44924259185791 16.019506454467773 -15.034944534301758  # TIP4 OH2 AW
110 1 9.859295845031738 -13.35134220123291 -8.961009979248047  # TIP4 OH2 AW
111 1 22.51576042175293 -4.468134880065918 -11.538572311401367  # TIP4 OH2 AW
112 1 -16.946178436279297 1.0565941333770752 -22.126352310180664  # TIP4 OH2 AW
113 1 -5.021883964538574 -8.613972663879395 20.247373580932617  # TIP4 OH2 AW
114 1 -22.8100643157959 -19.225065231323242 20.910659790039062  # TIP4 OH2 AW
115 1 7.410459518432617 10.6436128616333 5.681845188140869  # TIP4 OH2 AW
116 1 3.27252459526062 -14.877321243286133 -17.30685806274414  # TIP4 OH2 AW
117 1 19.36711883544922 17.24569320678711 -19.402969360351562  # TIP4 OH2 AW
118 1 5.384866237640381 -18.517229080200195 -10.020039558410645  # TIP4 OH2 AW
119 1 15.441434860229492 10.679667472839355 -8.715813636779785  # TIP4 OH2 AW
120 1 3.422994613647461 -1.1981186866760254 19.12098503112793  # TIP4 OH2 AW
121 1 -5.669112682342529 -18.908565521240234 23.85048484802246  # TIP4 OH2 AW
122 1 -6.748938083648682 5.109092712402344 22.53327178955078  # TIP4 OH2 AW
123 1 11.214188575744629 15.099519729614258 8.072945594787598  # TIP4 OH2 AW
124 1 22.158206939697266 -20.697038650512695 -15.96162223815918  # TIP4 OH2 AW
125 1 15.60970687866211 9.11207389831543 0.5513913035392761  # TIP4 OH2 AW
126 1 -9.222652435302734 -0.470886766910553 -5.196352958679199  # TIP4 OH2 AW
127 1 9.21238899230957 0.3482162356376648 14.074549674987793  # TIP4 OH2 AW
128 1 -18.310028076171875 0.15766985714435577 -9.117536544799805  # TIP4 OH2 AW
129 1 15.2123441696167 -11.229723930358887 4.108792781829834  # TIP4 OH2 AW
130 1 -10.26017951965332 16.295568466186523 -19.647424697875977  # TIP4 OH2 AW
131 1 3.134831666946411 -8.15999698638916 -20.480052947998047  # TIP4 OH2 AW
132 1 -6.864685535430908 -4.193356513977051 -23.033002853393555  # TIP4 OH2 AW
133 1 -17.7385196685791 3.56048846244812 17.713134765625  # TIP4 OH2 AW
134 1 20.36669158935547 -8.647289276123047 -22.50122833251953  # TIP4 OH2 AW
135 1 -14.081816673278809 -5.297275543212891 -21.639690399169922  # TIP4 OH2 AW
136 1 -0.5010132789611816 5.026994705200195 -5.347164630889893  # TIP4 OH2 AW
137 1 -10.833641052246094 4.386736869812012 -14.337196350097656  # TIP4 OH2 AW
138 1 12.360623359680176 16.005699157714844 5.608151435852051  # TIP4 OH2 AW
139 1 -19.258159637451172 -18.274391174316406 -16.545330047607422  # TIP4 OH2 AW
140 1 2.638836622238159 -6.312101364135742 20.93313980102539  # TIP4 OH2 AW
141 1 11.9724760055542 -17.13277244567871 3.522834062576294  # TIP4 OH2 AW
142 1 12.848278999328613 2.544802665710449 23.03483009338379  # TIP4 OH2 AW
143 1 -3.4723241329193115 -2.091341257095337 -3.4482357501983643  # TIP4 OH2 AW
144 1 -23.39388084411621 -8.229198455810547 -14.942864418029785  # TIP4 OH2 AW
145 1 16.88339614868164 5.78215217590332 20.33920669555664  # TIP4 OH2 AW
146 1 -12.172240257263184 -10.750032424926758 14.078001022338867  # TIP4 OH2 AW
147 1 9.23543930053711 20.106937408447266 4.6056599617004395  # TIP4 OH2 AW
148 1 -18.564794540405273 12.538320541381836 11.915507316589355  # TIP4 OH2 AW
149 1 -19.155439376831055 -23.903196334838867 -20.49488639831543  # TIP4 OH2 AW
150 1 20.528871536254883 9.162762641906738 20.05451774597168  # TIP4 OH2 AW
151 1 19.39137840270996 1.2123216390609741 22.586471557617188  # TIP4 OH2 AW
152 1 -5.9022650718688965 -4.06281852722168 17.693153381347656  # TIP4 OH2 AW
153 1 8.848648071289062 -14.999451637268066 -3.023066997528076  # TIP4 OH2 AW
154 1 -8.581388473510742 21.28827667236328 -5.837716579437256  # TIP4 OH2 AW
155 1 21.9467830657959 -21.61695671081543 -20.36947250366211  # TIP4 OH2 AW
156 1 15.811294555664062 9.917672157287598 19.343767166137695  # TIP4 OH2 AW
157 1 12.788653373718262 -14.11391830444336 -15.339652061462402  # TIP4 OH2 AW
158 1 9.153243064880371 7.156758785247803 3.6845972537994385  # TIP4 OH2 AW
159 1 -21.627382278442383 -13.02277946472168 11.681600570678711  # TIP4 OH2 AW
160 1 -4.383829593658447 -15.728813171386719 -3.127401351928711  # TIP4 OH2 AW
161 1 18.352981567382812 0.48793771862983704 -14.93896770477295  # TIP4 OH2 AW
162 1 -15.822915077209473 -10.442009925842285 20.698867797851562  # TIP4 OH2 AW
163 1 2.6586902141571045 0.46437594294548035 17.02052116394043  # TIP4 OH2 AW
164 1 17.952075958251953 7.3255462646484375 13.6637544631958  # TIP4 OH2 AW
165 1 -19.40921401977539 10.536551475524902 16.482118606567383  # TIP4 OH2 AW
166 1 9.87523078918457 19.364471435546875 -22.395292282104492  # TIP4 OH2 AW
167 1 -12.15648078918457 1.0701309442520142 -3.3092520236968994  # TIP4 OH2 AW
168 1 23.171470642089844 22.727048873901367 -4.275392055511475  # TIP4 OH2 AW
169 1 4.306768417358398 24.221389770507812 -13.110081672668457  # TIP4 OH2 AW
170 1 -6.291536808013916 -18.18021011352539 -12.920449256896973  # TIP4 OH2 AW
171 1 -14.928997993469238 1.2839293479919434 15.688159942626953  # TIP4 OH2 AW
172 1 -20.27623748779297 20.484146118164062 -21.072006225585938  # TIP4 OH2 AW
173 1 -22.02018165588379 0.09418720752000809 22.60723114013672  # TIP4 OH2 AW
174 1 -19.41093635559082 5.7879204750061035 -21.595651626586914  # TIP4 OH2 AW
175 1 9.913299560546875 17.27841567993164 4.9796929359436035  # TIP4 OH2 AW
176 1 -2.7439687252044678 23.241756439208984 -4.086297988891602  # TIP4 OH2 AW
177 1 -4.866641998291016 -19.65447235107422 12.499955177307129  # TIP4 OH2 AW
178 1 -17.264446258544922 9.799128532409668 5.882582664489746  # TIP4 OH2 AW
179 1 -6.423851490020752 -6.834203720092773 -12.337138175964355  # TIP4 OH2 AW
180 1 -23.62967300415039 19.4864501953125 9.094131469726562  # TIP4 OH2 AW
181 1 -4.1388421058654785 -4.038765907287598 -20.75770378112793  # TIP4 OH2 AW
182 1 -23.92462158203125 -1.2647640705108643 15.680394172668457  # TIP4 OH2 AW
183 1 20.304664611816406 12.916051864624023 -3.484637975692749  # TIP4 OH2 AW
184 1 5.344577312469482 -23.643999099731445 -21.083972930908203  # TIP4 OH2 AW
185 1 21.299856185913086 21.918405532836914 16.330768585205078  # TIP4 OH2 AW
186 1 14.578377723693848 23.634721755981445 -7.799438953399658  # TIP4 OH2 AW
187 1 -11.794300079345703 7.1577348709106445 -6.305859565734863  # TIP4 OH2 AW
188 1 6.197121620178223 -23.355754852294922 -4.3963942527771  # TIP4 OH2 AW
189 1 -3.419011116027832 -4.927674770355225 3.3094019889831543  # TIP4 OH2 AW
190 1 -16.026636123657227 9.969104766845703 -11.715993881225586  # TIP4 OH2 AW
191 1 2.673348903656006 -4.360259532928467 -22.999670028686523  # TIP4 OH2 AW
192 1 7.225602626800537 5.286007881164551 -3.7353827953338623  # TIP4 OH2 AW
193 1 9.189386367797852 1.9688706398010254 4.672275543212891  # TIP4 OH2 AW
194 1 1.4285099506378174 23.179353713989258 -21.574800491333008  # TIP4 OH2 AW
195 1 6.996578693389893 -0.25627514719963074 -9.501180648803711  # TIP4 OH2 AW
196 1 -16.63055992126465 21.36103630065918 6.0551557540893555  # TIP4 OH2 AW
197 1 -24.137310028076172 -4.109841823577881 23.809541702270508  # TIP4 OH2 AW
198 1 -10.399800300598145 -18.79145050048828 -16.961732864379883  # TIP4 OH2 AW
199 1 -22.87051010131836 -2.9165117740631104 -10.707283973693848  # TIP4 OH2 AW
200 1 15.434553146362305 8.110978126525879 -16.461545944213867  # TIP4 OH2 AW
201 1 7.279600620269775 3.8392114639282227 -23.505523681640625  # TIP4 OH2 AW
202 1 10.809292793273926 13.563559532165527 12.971685409545898  # TIP4 OH2 AW
203 1 -23.574317932128906 18.589447021484375 6.409562587738037  # TIP4 OH2 AW
204 1 -6.625043869018555 -15.579020500183105 -8.731697082519531  # TIP4 OH2 AW
205 1 19.73900032043457 -5.921942234039307 11.401239395141602  # TIP4 OH2 AW
206 1 -2.676689624786377 -14.669465065002441 -19.723154067993164  # TIP4 OH2 AW
207 1 -7.5936126708984375 6.601794242858887 -23.8217716217041  # TIP4 OH2 AW
208 1 3.0205001831054688 -5.8871684074401855 16.42149543762207  # TIP4 OH2 AW
209 1 -7.38222074508667 15.729215621948242 -15.507465362548828  # TIP4 OH2 AW
210 1 -18.794586181640625 12.81805419921875 -0.5865039825439453  # TIP4 OH2 AW
211 1 17.403470993041992 -0.47386348247528076 6.118011951446533  # TIP4 OH2 AW
212 1 -14.823055267333984 24.090377807617188 -4.3294572830200195  # TIP4 OH2 AW
213 1 -21.661474227905273 -18.193737030029297 -2.177596092224121  # TIP4 OH2 AW
214 1 16.116077423095703 -4.410750865936279 -20.886137008666992  # TIP4 OH2 AW
215 1 9.02553939819336 22.625219345092773 16.849061965942383  # TIP4 OH2 AW
216 1 -17.83295440673828 -23.472251892089844 7.345555305480957  # TIP4 OH2 AW
217 1 3.575119972229004 21.900314331054688 9.221318244934082  # TIP4 OH2 AW
218 1 12.053621292114258 3.796210765838623 -3.103740930557251  # TIP4 OH2 AW
219 1 -6.222232818603516 22.279037475585938 21.321884155273438  # TIP4 OH2 AW
220 1 5.2687225341796875 19.611278533935547 16.53995132446289  # TIP4 OH2 AW
221 1 -16.119028091430664 2.8547475337982178 -1.7773041725158691  # TIP4 OH2 AW
222 1 -11.634066581726074 -8.562032699584961 -0.8026636838912964  # TIP4 OH2 AW
223 1 -23.22230339050293 -5.150023460388184 0.4575216472148895  # TIP4 OH2 AW
224 1 -12.930662155151367 -3.2185466289520264 23.86298942565918  # TIP4 OH2 AW
225 1 3.8973305225372314 -13.278087615966797 -6.211867809295654  # TIP4 OH2 AW
226 1 23.09946060180664 14.797683715820312 -14.551986694335938  # TIP4 OH2 AW
227 1 16.257768630981445 16.41547203063965 1.4999611377716064  # TIP4 OH2 AW
228 1 -10.262560844421387 20.01690673828125 -0.34216412901878357  # TIP4 OH2 AW
229 1 11.029400825500488 10.087950706481934 -10.093615531921387  # TIP4 OH2 AW
230 1 -8.603190422058105 13.425175666809082 20.11228370666504  # TIP4 OH2 AW
231 1 23.81352424621582 -4.425570487976074 -21.312578201293945  # TIP4 OH2 AW
232 1 -2.1087863445281982 -13.244324684143066 11.079292297363281  # TIP4 OH2 AW
233 1 -12.948966026306152 16.401405334472656 11.19972038269043  # TIP4 OH2 AW
234 1 -6.669153213500977 18.930824279785156 7.386789321899414  # TIP4 OH2 AW
235 1 -21.726394653320312 -1.0124342441558838 -8.7055082321167  # TIP4 OH2 AW
236 1 16.9879093170166 -9.010504722595215 8.545455932617188  # TIP4 OH2 AW
237 1 -16.448163986206055 21.496286392211914 1.0178707838058472  # TIP4 OH2 AW
238 1 16.685983657836914 -2.139336347579956 23.638919830322266  # TIP4 OH2 AW
239 1 -20.396326065063477 18.937170028686523 17.152942657470703  # TIP4 OH2 AW
240 1 10.867606163024902 0.7312982678413391 16.400297164916992  # TIP4 OH2 AW
241 1 -22.82904815673828 -15.42015552520752 10.68865966796875  # TIP4 OH2 AW
242 1 -9.074914932250977 -4.346717357635498 -13.851245880126953  # TIP4 OH2 AW
243 1 -6.859929084777832 -8.81722354888916 11.273956298828125  # TIP4 OH2 AW
244 1 -20.40201187133789 9.992326736450195 23.515043258666992  # TIP4 OH2 AW
245 1 -10.752521514892578 23.646169662475586 -10.904667854309082  # TIP4 OH2 AW
246 1 9.918209075927734 2.3586206436157227 22.285348892211914  # TIP4 OH2 AW
247 1 -23.755449295043945 -7.707948684692383 12.619877815246582  # TIP4 OH2 AW
248 1 -17.969844818115234 7.092806339263916 -13.932134628295898  # TIP4 OH2 AW
249 1 -1.3988338708877563 -18.212121963500977 9.907029151916504  # TIP4 OH2 AW
250 1 -1.3365566730499268 -1.0739386081695557 5.464093208312988  # TIP4 OH2 AW
251 1 -21.621042251586914 -1.9159177541732788 -22.027484893798828  # TIP4 OH2 AW
252 1 19.899690628051758 16.065492630004883 -12.435396194458008  # TIP4 OH2 AW
253 1 -1.046459674835205 -3.164530038833618 -24.130226135253906  # TIP4 OH2 AW
254 1 5.8498945236206055 -12.161288261413574 -8.44522762298584  # TIP4 OH2 AW
255 1 23.329221725463867 -23.157140731811523 9.739855766296387  # TIP4 OH2 AW
256 1 -11.311058044433594 -4.9817657470703125 -10.692444801330566  # TIP4 OH2 AW
257 1 -1.2480690479278564 4.173933506011963 -21.645977020263672  # TIP4 OH2 AW
258 1 -5.497874736785889 -1.994545578956604 -6.907896518707275  # TIP4 OH2 AW
259 1 17.682193756103516 -16.78304100036621 -18.113637924194336  # TIP4 OH2 AW
260 1 13.851590156555176 8.70964241027832 -3.600804328918457  # TIP4 OH2 AW
261 1 -2.226163148880005 -24.288101196289062 10.84368896484375  # TIP4 OH2 AW
262 1 18.204381942749023 18.726268768310547 10.459882736206055  # TIP4 OH2 AW
263 1 -21.695016860961914 7.287838935852051 -8.528219223022461  # TIP4 OH2 AW
264 1 22.003787994384766 3.301931619644165 17.80030632019043  # TIP4 OH2 AW
265 1 14.432762145996094 -16.376617431640625 -6.281364440917969  # TIP4 OH2 AW
266 1 23.184141159057617 4.068087100982666 -16.356496810913086  # TIP4 OH2 AW
267 1 -12.246297836303711 19.910715103149414 -10.990711212158203  # TIP4 OH2 AW
268 1 -20.848466873168945 18.23159408569336 -11.789323806762695  # TIP4 OH2 AW
269 1 -19.215604782104492 -8.036624908447266 -13.547450065612793  # TIP4 OH2 AW
270 1 -23.085466384887695 -16.892547607421875 16.667646408081055  # TIP4 OH2 AW
271 1 2.4952189922332764 21.956254959106445 -12.922606468200684  # TIP4 OH2 AW
272 1 11.546493530273438 -17.793039321899414 11.715181350708008  # TIP4 OH2 AW
273 1 -17.824953079223633 -11.292223930358887 13.528597831726074  # TIP4 OH2 AW
274 1 12.096464157104492 -12.38658332824707 8.640606880187988  # TIP4 OH2 AW
275 1 12.459169387817383 22.490314483642578 -21.249364852905273  # TIP4 OH2 AW
276 1 21.712047576904297 6.781116008758545 -8.380037307739258  # TIP4 OH2 AW
277 1 11.93247127532959 -13.809271812438965 -19.624900817871094  # TIP4 OH2 AW
278 1 19.268220901489258 8.70975112915039 17.35253143310547  # TIP4 OH2 AW
279 1 -23.39058494567871 -0.7582634687423706 -1.5214916467666626  # TIP4 OH2 AW
280 1 -3.4529144763946533 -18.79732894897461 -12.614557266235352  # TIP4 OH2 AW
281 1 15.249587059020996 19.205957412719727 13.328597068786621  # TIP4 OH2 AW
282 1 12.188645362854004 10.748018264770508 12.623743057250977  # TIP4 OH2 AW
283 1 -4.080690860748291 -20.524621963500977 -19.919445037841797  # TIP4 OH2 AW
284 1 1.6001173257827759 14.159867286682129 2.2288708686828613  # TIP4 OH2 AW
285 1 -15.660293579101562 18.516094207763672 14.985427856445312  # TIP4 OH2 AW
286 1 -4.858513832092285 17.42940330505371 -0.7971808910369873  # TIP4 OH2 AW
287 1 4.951404094696045 -9.463491439819336 -7.377317905426025  # TIP4 OH2 AW
288 1 16.400724411010742 23.428855895996094 4.546435832977295  # TIP4 OH2 AW
289 1 -5.892134189605713 -22.020423889160156 11.144928932189941  # TIP4 OH2 AW
290 1 -4.807745456695557 -12.100224494934082 -16.27560806274414  # TIP4 OH2 AW
291 1 -11.476546287536621 -17.129592895507812 12.338105201721191  # TIP4 OH2 AW
292 1 15.163579940795898 8.068973541259766 3.3992133140563965  # TIP4 OH2 AW
293 1 13.82873821258545 3.746466636657715 13.413082122802734  # TIP4 OH2 AW
294 1 -8.520514488220215 1.3596792221069336 -1.2583626508712769  # TIP4 OH2 AW
295 1 -0.16206733882427216 6.914861679077148 9.499921798706055  # TIP4 OH2 AW
296 1 1.2106654644012451 14.880903244018555 -2.2987849712371826  # TIP4 OH2 AW
297 1 19.71440887451172 -6.949398994445801 -7.4967570304870605  # TIP4 OH2 AW
298 1 14.856307983398438 -20.29690933227539 -20.98496437072754  # TIP4 OH2 AW
299 1 5.52678108215332 -21.882680892944336 -12.395489692687988  # TIP4 OH2 AW
300 1 14.551630020141602 -4.602767467498779 16.803306579589844  # TIP4 OH2 AW
301 1 -6.240117073059082 20.92059326171875 -21.517635345458984  # TIP4 OH2 AW
302 1 0.2855396270751953 9.119293212890625 -1.910836935043335  # TIP4 OH2 AW
303 1 -20.787508010864258 -18.131023406982422 -7.8845977783203125  # TIP4 OH2 AW
304 1 -20.71839714050293 -17.376277923583984 14.777889251708984  # TIP4 OH2 AW
305 1 4.162699222564697 -20.66803741455078 21.943342208862305  # TIP4 OH2 AW
306 1 13.142163276672363 21.131582260131836 -11.363253593444824  # TIP4 OH2 AW
307 1 13.37458610534668 11.813862800598145 -23.698759078979492  # TIP4 OH2 AW
308 1 -19.340566635131836 -21.23223304748535 2.5975420475006104  # TIP4 OH2 AW
309 1 5.9510297775268555 -18.954561233520508 18.79736328125  # TIP4 OH2 AW
310 1 1.523361086845398 13.543718338012695 13.95997142791748  # TIP4 OH2 AW
311 1 13.416585922241211 -10.377493858337402 1.819495439529419  # TIP4 OH2 AW
312 1 -6.646125793457031 0.6906790733337402 -9.025634765625  # TIP4 OH2 AW
313 1 -18.044458389282227 -14.74329948425293 -9.44116497039795  # TIP4 OH2 AW
314 1 -12.947978019714355 5.139293670654297 -8.173455238342285  # TIP4 OH2 AW
315 1 -15.021047592163086 -23.185359954833984 2.7696444988250732  # TIP4 OH2 AW
316 1 23.347110748291016 -5.927508354187012 4.029825687408447  # TIP4 OH2 AW
317 1 -10.17136287689209 -10.385391235351562 -23.432044982910156  # TIP4 OH2 AW
318 1 20.912012100219727 -17.3361759185791 20.643041610717773  # TIP4 OH2 AW
319 1 -11.10396957397461 2.726039171218872 14.404393196105957  # TIP4 OH2 AW
320 1 -1.842283010482788 -1.5285711288452148 8.483943939208984  # TIP4 OH2 AW
321 1 -19.22646713256836 -10.865018844604492 -12.807415008544922  # TIP4 OH2 AW
322 1 -11.604207992553711 13.794657707214355 -0.9983125329017639  # TIP4 OH2 AW
323 1 -13.697999000549316 1.0588693618774414 3.2064692974090576  # TIP4 OH2 AW
324 1 22.81027603149414 4.375449180603027 6.348878383636475  # TIP4 OH2 AW
325 1 -1.1311256885528564 -20.94355583190918 19.011001586914062  # TIP4 OH2 AW
326 1 -17.863197326660156 5.002655982971191 1.0166540145874023  # TIP4 OH2 AW
327 1 -7.235477447509766 -10.560877799987793 20.76601791381836  # TIP4 OH2 AW
328 1 14.158110618591309 20.567949295043945 15.630450248718262  # TIP4 OH2 AW
329 1 -0.9726695418357849 1.287793517112732 -11.029006004333496  # TIP4 OH2 AW
330 1 -14.343016624450684 -23.5128116607666 23.610185623168945  # TIP4 OH2 AW
331 1 12.068009376525879 7.1845598220825195 4.248765468597412  # TIP4 OH2 AW
332 1 10.055980682373047 0.5457059144973755 -10.25641918182373  # TIP4 OH2 AW
333 1 9.255189895629883 -11.082364082336426 -14.563164710998535  # TIP4 OH2 AW
334 1 4.881898403167725 -21.645061492919922 -2.4833285808563232  # TIP4 OH2 AW
335 1 22.57223892211914 -24.170440673828125 4.8515625  # TIP4 OH2 AW
336 1 19.33840560913086 14.26314926147461 -22.455623626708984  # TIP4 OH2 AW
337 1 -18.09147834777832 19.317590713500977 0.3659903109073639  # TIP4 OH2 AW
338 1 6.242344856262207 -8.286489486694336 18.202165603637695  # TIP4 OH2 AW
339 1 -6.294613838195801 -16.523462295532227 -23.311254501342773  # TIP4 OH2 AW
340 1 -12.919458389282227 2.4072365760803223 -18.329816818237305  # TIP4 OH2 AW
341 1 -10.434632301330566 1.5894588232040405 -14.267248153686523  # TIP4 OH2 AW
342 1 -1.4443038702011108 -15.97290325164795 -10.646632194519043  # TIP4 OH2 AW
343 1 -3.570164918899536 -12.240696907043457 -5.936665058135986  # TIP4 OH2 AW
344 1 9.818470001220703 -16.47956085205078 -12.31866455078125  # TIP4 OH2 AW
345 1 -11.02871036529541 -5.013338088989258 15.259307861328125  # TIP4 OH2 AW
346 1 15.503647804260254 1.5355144739151 5.437538146972656  # TIP4 OH2 AW
347 1 20.220060348510742 -6.4578986167907715 8.279858589172363  # TIP4 OH2 AW
348 1 -11.7738618850708 -3.326429843902588 10.054410934448242  # TIP4 OH2 AW
349 1 -6.207495212554932 9.330572128295898 22.094993591308594  # TIP4 OH2 AW
350 1 -23.055404663085938 16.286874771118164 22.219745635986328  # TIP4 OH2 AW
351 1 -16.7495174407959 3.3209228515625 11.335962295532227  # TIP4 OH2 AW
352 1 15.087715148925781 1.022047996520996 1.0351853370666504  # TIP4 OH2 AW
353 1 15.891739845275879 -24.234708786010742 -17.129230499267578  # TIP4 OH2 AW
354 1 9.32338809967041 22.98391342163086 -7.048837184906006  # TIP4 OH2 AW
355 1 -4.707322597503662 -1.1294023990631104 7.489177227020264  # TIP4 OH2 AW
356 1 -2.609255075454712 -19.14350700378418 -21.857942581176758  # TIP4 OH2 AW
357 1 -6.854033470153809 -14.010764122009277 2.3365542888641357  # TIP4 OH2 AW
358 1 18.772716522216797 -12.68714427947998 13.55915355682373  # TIP4 OH2 AW
359 1 -14.522503852844238 -19.15342903137207 -10.549808502197266  # TIP4 OH2 AW
360 1 5.2459492683410645 16.479286193847656 1.0507431030273438  # TIP4 OH2 AW
361 1 -23.750200271606445 -19.96615219116211 -3.8464157581329346  # TIP4 OH2 AW
362 1 -20.769393920898438 11.14648151397705 5.277564525604248  # TIP4 OH2 AW
363 1 -19.690105438232422 -18.69464111328125 9.924295425415039  # TIP4 OH2 AW
364 1 -10.376513481140137 2.960069417953491 -4.731740474700928  # TIP4 OH2 AW
365 1 -0.8776327967643738 -17.403282165527344 20.353702545166016  # TIP4 OH2 AW
366 1 -20.830947875976562 1.7525138854980469 -9.682114601135254  # TIP4 OH2 AW
367 1 6.201413154602051 16.805757522583008 -16.494251251220703  # TIP4 OH2 AW
368 1 3.9632604122161865 -6.333467483520508 11.701458930969238  # TIP4 OH2 AW
369 1 14.204411506652832 7.641298770904541 -13.827192306518555  # TIP4 OH2 AW
370 1 4.547478199005127 -14.23422622680664 -21.855960845947266  # TIP4 OH2 AW
371 1 -9.700270652770996 -23.804292678833008 18.086170196533203  # TIP4 OH2 AW
372 1 -8.475760459899902 22.575366973876953 8.237115859985352  # TIP4 OH2 AW
373 1 -16.689016342163086 5.772532939910889 23.089759826660156  # TIP4 OH2 AW
374 1 -5.689273357391357 18.41819190979004 -12.446490287780762  # TIP4 OH2 AW
375 1 -22.13382339477539 -5.845792770385742 22.78656005859375  # TIP4 OH2 AW
376 1 -5.644138813018799 -14.92251205444336 -16.080829620361328  # TIP4 OH2 AW
377 1 14.899090766906738 -0.06521172821521759 12.49591064453125  # TIP4 OH2 AW
378 1 17.396467208862305 -14.230347633361816 -4.12389612197876  # TIP4 OH2 AW
379 1 -24.07794189453125 24.405258178710938 1.3930732011795044  # TIP4 OH2 AW
380 1 13.537074089050293 16.438369750976562 -20.74768829345703  # TIP4 OH2 AW