ITEM: TIMESTEP
0
ITEM: NUMBER OF ATOMS
4000
ITEM: BOX BOUNDS pp pp pp
0 16.796
0 16.796
0 16.796
ITEM: ATOMS id type x y z vx vy vz 
1 1 0 0 0 1.1087 0.233604 0.0980598 
2 1 0.839798 0.839798 0 -1.85044 0.929038 -1.30119 
3 1 0.839798 0 0.839798 -0.704781 -2.63658 1.45106 
4 1 0 0.839798 0.839798 0.23542 1.4856 -1.26263 
5 1 1.6796 0 0 -0.167796 1.18291 0.00112902 
6 1 2.51939 0.839798 0 2.66752 0.701757 2.69869 
7 1 2.51939 0 0.839798 -1.80299 -0.253626 -2.46436 
8 1 1.6796 0.839798 0.839798 -1.02952 -3.00153 -2.99642 
9 1 3.35919 0 0 -0.789752 -2.83221 -1.00518 
10 1 4.19899 0.839798 0 0.75367 -0.994962 1.92324 
11 1 4.19899 0 0.839798 -1.96985 2.90415 1.385 
12 1 3.35919 0.839798 0.839798 -2.81282 -0.73117 0.455872 
13 1 5.03879 0 0 -2.28239 1.82593 1.05714 
14 1 5.87859 0.839798 0 -1.10934 -1.31354 2.18593 
15 1 5.87859 0 0.839798 2.16912 -1.99386 -2.44269 
16 1 5.03879 0.839798 0.839798 0.198252 -0.00402727 -0.450275 
17 1 6.71838 0 0 -2.81366 -2.77076 -2.87928 
18 1 7.55818 0.839798 0 1.64981 0.70602 1.74144 
19 1 7.55818 0 0.839798 -2.04295 2.50308 0.830487 
20 1 6.71838 0.839798 0.839798 1.35764 -2.73928 -0.163925 
21 1 8.39798 0 0 -0.274861 -1.27297 0.430063 
24 1 8.39798 0.839798 0.839798 -0.994523 -1.69487 0.666297 
22 1 9.23778 0.839798 0 -0.432994 -2.84538 1.43609 
23 1 9.23778 0 0.839798 2.75723 1.82659 -0.0451687 
25 1 10.0776 0 0 0.842247 -0.709397 -2.69125 
28 1 10.0776 0.839798 0.839798 1.61936 -2.76062 -1.86159 
26 1 10.9174 0.839798 0 -2.52412 -1.10769 1.05965 
27 1 10.9174 0 0.839798 -1.2373 2.08118 1.10806 
29 1 11.7572 0 0 1.13441 2.7591 1.95811 
32 1 11.7572 0.839798 0.839798 -2.28861 0.187406 -1.8945 
30 1 12.597 0.839798 0 -2.80011 1.08654 1.79858 
31 1 12.597 0 0.839798 2.30799 2.50107 -2.64767 
33 1 13.4368 0 0 -1.24446 2.65545 2.3669 
36 1 13.4368 0.839798 0.839798 -2.8221 0.534794 -2.07225 
34 1 14.2766 0.839798 0 0.301986 0.918531 -2.43355 
35 1 14.2766 0 0.839798 2.45875 1.14952 1.51316 
37 1 15.1164 0 0 0.141493 2.01994 0.418108 
40 1 15.1164 0.839798 0.839798 -0.353485 2.3515 0.598126 
38 1 15.9562 0.839798 0 -1.68977 2.78357 1.7969 
39 1 15.9562 0 0.839798 -1.69296 -2.35151 0.739306 
41 1 0 1.6796 0 -1.36973 2.8761 1.93989 
42 1 0.839798 2.51939 0 -0.507182 2.72569 -2.92087 
43 1 0.839798 1.6796 0.839798 -1.56301 -2.45582 2.15181 
44 1 0 2.51939 0.839798 -2.57976 1.53454 -1.56726 
45 1 1.6796 1.6796 0 -1.2316 1.00835 0.620125 
46 1 2.51939 2.51939 0 -0.716361 2.39114 1.25674 
47 1 2.51939 1.6796 0.839798 1.56634 1.58694 1.84354 
48 1 1.6796 2.51939 0.839798 1.63566 -1.04252 1.20922 
49 1 3.35919 1.6796 0 1.52539 -2.91584 -2.92336 
50 1 4.19899 2.51939 0 -1.14207 -0.86315 2.80692 
51 1 4.19899 1.6796 0.839798 2.01394 -2.35215 2.08994 
52 1 3.35919 2.51939 0.839798 -1.77423 -0.931892 -2.95684 
53 1 5.03879 1.6796 0 -1.06301 2.93469 0.385208 
54 1 5.87859 2.51939 0 2.01295 -0.82739 -1.22678 
55 1 5.87859 1.6796 0.839798 -2.62571 -2.34965 1.68752 
56 1 5.03879 2.51939 0.839798 -0.757479 1.08538 0.509928 
57 1 6.71838 1.6796 0 -1.33912 2.9867 -2.73607 
58 1 7.55818 2.51939 0 0.541352 0.358993 1.93287 
59 1 7.55818 1.6796 0.839798 2.57455 -0.922676 0.680932 
60 1 6.71838 2.51939 0.839798 -1.26133 -2.47866 -0.596838 
61 1 8.39798 1.6796 0 2.50563 2.56885 -0.964342 
64 1 8.39798 2.51939 0.839798 2.25441 -2.57408 -0.817281 
62 1 9.23778 2.51939 0 -2.64115 -1.64024 -0.725118 
63 1 9.23778 1.6796 0.839798 0.478534 -2.63623 1.25354 
65 1 10.0776 1.6796 0 0.413527 -0.067429 -1.15661 
68 1 10.0776 2.51939 0.839798 0.0717016 2.83729 -2.97648 
66 1 10.9174 2.51939 0 2.88978 -2.9627 2.16216 
67 1 10.9174 1.6796 0.839798 1.97119 -0.844031 -2.59317 
69 1 11.7572 1.6796 0 1.66778 0.260877 -1.36056 
72 1 11.7572 2.51939 0.839798 -0.085454 -0.462362 -1.41023 
70 1 12.597 2.51939 0 -0.249248 -0.381351 -1.21821 
71 1 12.597 1.6796 0.839798 2.21111 1.76437 0.900961 
73 1 13.4368 1.6796 0 -0.149556 -0.837163 -2.11761 
76 1 13.4368 2.51939 0.839798 -0.716071 1.22378 -2.92868 
74 1 14.2766 2.51939 0 0.113472 3.01209 0.424167 
75 1 14.2766 1.6796 0.839798 -2.71303 0.467593 -0.069272 
77 1 15.1164 1.6796 0 0.213632 -1.67879 -1.24046 
80 1 15.1164 2.51939 0.839798 -2.74119 -0.999549 -2.57433 
78 1 15.9562 2.51939 0 -2.65865 0.699223 2.47055 
79 1 15.9562 1.6796 0.839798 -0.140512 -0.0955716 -2.21102 
81 1 0 3.35919 0 2.11842 -1.05954 -0.35667 
82 1 0.839798 4.19899 0 -2.71412 0.310404 2.11574 
83 1 0.839798 3.35919 0.839798 2.39286 1.05221 -0.459513 
84 1 0 4.19899 0.839798 -0.759545 2.65719 1.32939 
85 1 1.6796 3.35919 0 0.469111 2.35347 -2.73129 
86 1 2.51939 4.19899 0 2.11826 2.26136 -1.76475 
87 1 2.51939 3.35919 0.839798 1.1728 0.494614 0.289304 
88 1 1.6796 4.19899 0.839798 -0.416848 2.30579 0.757396 
89 1 3.35919 3.35919 0 1.16014 -0.383795 0.0572595 
90 1 4.19899 4.19899 0 2.17574 0.323853 -1.76422 
91 1 4.19899 3.35919 0.839798 -2.05071 -0.813765 -2.15166 
92 1 3.35919 4.19899 0.839798 2.70631 -0.887055 0.367372 
93 1 5.03879 3.35919 0 -1.28827 -1.56325 -1.54557 
94 1 5.87859 4.19899 0 0.247334 2.04808 1.53645 
95 1 5.87859 3.35919 0.839798 1.37588 1.22693 1.55794 
96 1 5.03879 4.19899 0.839798 -0.413658 1.46345 1.58996 
97 1 6.71838 3.35919 0 -0.790355 -0.868683 0.560545 
98 1 7.55818 4.19899 0 2.30876 -2.6824 -0.151787 
99 1 7.55818 3.35919 0.839798 -1.97933 0.735145 1.15839 
100 1 6.71838 4.19899 0.839798 0.491611 -0.669793 -2.6193 
101 1 8.39798 3.35919 0 2.70111 2.47781 -0.346537 
104 1 8.39798 4.19899 0.839798 1.31821 0.0623173 1.31236 
102 1 9.23778 4.19899 0 -1.83717 0.216689 0.181446 
103 1 9.23778 3.35919 0.839798 1.95492 -2.02973 -0.34347 
105 1 10.0776 3.35919 0 -1.45368 1.74238 0.511209 
108 1 10.0776 4.19899 0.839798 0.151559 1.79521 -1.0469 
106 1 10.9174 4.19899 0 2.03838 2.97273 -1.63663 
107 1 10.9174 3.35919 0.839798 0.476178 0.120926 0.113299 
109 1 11.7572 3.35919 0 1.47153 -0.651293 -0.255113 
112 1 11.7572 4.19899 0.839798 0.53019 0.322921 0.714182 
110 1 12.597 4.19899 0 -2.09405 2.79387 -0.570668 
111 1 12.597 3.35919 0.839798 0.652729 2.66604 -1.07683 
113 1 13.4368 3.35919 0 0.922159 -0.844897 0.998747 
116 1 13.4368 4.19899 0.839798 0.845669 2.34913 -2.94831 
114 1 14.2766 4.19899 0 -2.33379 -2.88644 1.12901 
115 1 14.2766 3.35919 0.839798 2.80879 -2.79573 0.938816 
117 1 15.1164 3.35919 0 -2.93034 2.52519 -2.67553 
120 1 15.1164 4.19899 0.839798 1.83544 -1.48114 -1.14157 
118 1 15.9562 4.19899 0 1.43603 1.74558 -0.19798 
119 1 15.9562 3.35919 0.839798 2.17066 -0.416784 2.26007 
121 1 0 5.03879 0 1.56786 2.9647 2.65855 
122 1 0.839798 5.87859 0 1.19873 0.757277 -2.00696 
123 1 0.839798 5.03879 0.839798 2.28137 2.75434 0.547656 
124 1 0 5.87859 0.839798 -2.55259 -1.55247 -1.91104 
125 1 1.6796 5.03879 0 -1.06458 0.723839 -1.30293 
126 1 2.51939 5.87859 0 0.244884 -2.81942 2.14667 
127 1 2.51939 5.03879 0.839798 1.76749 0.112437 2.65173 
128 1 1.6796 5.87859 0.839798 1.49001 1.45936 -0.532477 
129 1 3.35919 5.03879 0 1.18134 -1.13804 -0.717513 
130 1 4.19899 5.87859 0 1.24166 2.15273 -0.33364 
131 1 4.19899 5.03879 0.839798 -2.88302 -0.711476 -1.31625 
132 1 3.35919 5.87859 0.839798 0.285667 -1.0887 -0.480846 
133 1 5.03879 5.03879 0 -2.32548 -2.3584 -0.120243 
134 1 5.87859 5.87859 0 1.78338 0.945079 2.07466 
135 1 5.87859 5.03879 0.839798 1.74333 -0.598134 -2.28463 
136 1 5.03879 5.87859 0.839798 0.480048 -1.3877 2.27049 
137 1 6.71838 5.03879 0 1.53356 1.30582 2.49023 
138 1 7.55818 5.87859 0 -2.09546 -2.77571 -1.44786 
139 1 7.55818 5.03879 0.839798 2.69002 -2.30223 0.00252899 
140 1 6.71838 5.87859 0.839798 1.99488 -2.03019 -2.03682 
141 1 8.39798 5.03879 0 2.71522 -2.38907 -1.3016 
144 1 8.39798 5.87859 0.839798 -1.00763 1.82975 -1.4353 
142 1 9.23778 5.87859 0 -1.60273 1.42402 -1.58966 
143 1 9.23778 5.03879 0.839798 -2.70365 0.678771 -2.44348 
145 1 10.0776 5.03879 0 2.08196 -2.69162 2.20998 
148 1 10.0776 5.87859 0.839798 -0.0572137 2.23469 -2.34808 
146 1 10.9174 5.87859 0 1.03452 -0.0915354 -0.930438 
147 1 10.9174 5.03879 0.839798 -1.55936 -1.64635 -0.58259 
149 1 11.7572 5.03879 0 -0.944829 -1.45883 -1.28043 
152 1 11.7572 5.87859 0.839798 -1.29847 2.4821 -0.773003 
150 1 12.597 5.87859 0 -2.84623 0.356239 -2.00455 
151 1 12.597 5.03879 0.839798 0.497698 -1.22505 1.04237 
153 1 13.4368 5.03879 0 0.385837 0.432528 -2.51776 
156 1 13.4368 5.87859 0.839798 1.44245 0.727622 1.78211 
154 1 14.2766 5.87859 0 -2.99133 0.129463 -1.60653 
155 1 14.2766 5.03879 0.839798 -1.8298 -3.01667 2.58224 
157 1 15.1164 5.03879 0 -2.19661 -2.63382 -0.589322 
160 1 15.1164 5.87859 0.839798 -0.916235 1.14384 2.76123 
158 1 15.9562 5.87859 0 1.77078 0.905629 -1.45494 
159 1 15.9562 5.03879 0.839798 -1.35461 2.89191 1.46899 
161 1 0 6.71838 0 2.63543 -0.183182 1.63474 
162 1 0.839798 7.55818 0 1.69139 -2.23622 2.26868 
163 1 0.839798 6.71838 0.839798 1.31886 -1.19237 -0.319011 
164 1 0 7.55818 0.839798 0.960765 0.609228 2.54254 
165 1 1.6796 6.71838 0 -0.371963 0.367047 -1.85809 
166 1 2.51939 7.55818 0 -0.481271 2.58841 1.02601 
167 1 2.51939 6.71838 0.839798 2.08785 -0.549193 -2.60843 
168 1 1.6796 7.55818 0.839798 -2.23436 -1.68421 -1.66837 
169 1 3.35919 6.71838 0 -0.463131 -1.10987 0.727184 
170 1 4.19899 7.55818 0 1.63563 -1.63122 -0.471504 
171 1 4.19899 6.71838 0.839798 -2.62141 -2.54337 0.935062 
172 1 3.35919 7.55818 0.839798 -1.75078 -0.00802607 -1.10267 
173 1 5.03879 6.71838 0 1.93579 -2.96979 -2.13226 
174 1 5.87859 7.55818 0 1.95083 1.72317 -1.74963 
175 1 5.87859 6.71838 0.839798 1.14514 1.52611 2.02403 
176 1 5.03879 7.55818 0.839798 -2.24569 1.45141 -1.12209 
177 1 6.71838 6.71838 0 2.3016 -2.09771 0.733815 
178 1 7.55818 7.55818 0 -1.88591 -2.22292 1.84973 
179 1 7.55818 6.71838 0.839798 2.85071 -0.162816 -0.945146 
180 1 6.71838 7.55818 0.839798 -0.677642 -0.297877 -1.97592 
181 1 8.39798 6.71838 0 -2.36034 -1.39966 0.862513 
184 1 8.39798 7.55818 0.839798 3.0151 -2.33061 0.97059 
182 1 9.23778 7.55818 0 1.11107 -2.25284 1.24759 
183 1 9.23778 6.71838 0.839798 -0.98415 -2.81823 -2.09836 
185 1 10.0776 6.71838 0 2.42122 -0.402978 -1.66773 
188 1 10.0776 7.55818 0.839798 -0.993656 0.775158 2.05618 
186 1 10.9174 7.55818 0 -1.85401 1.4779 2.41008 
187 1 10.9174 6.71838 0.839798 0.0318709 -1.04339 -1.22776 
189 1 11.7572 6.71838 0 -0.352834 1.19526 1.79271 
192 1 11.7572 7.55818 0.839798 -0.9641 1.38228 -1.16587 
190 1 12.597 7.55818 0 0.460627 -1.07886 1.69071 
191 1 12.597 6.71838 0.839798 -1.60972 -1.05525 -0.965683 
193 1 13.4368 6.71838 0 -1.45038 2.681 2.16792 
196 1 13.4368 7.55818 0.839798 2.26693 2.13291 -0.682621 
194 1 14.2766 7.55818 0 2.00085 1.4681 1.14042 
195 1 14.2766 6.71838 0.839798 0.941962 -0.779658 2.34289 
197 1 15.1164 6.71838 0 0.767962 -2.81389 -1.68634 
200 1 15.1164 7.55818 0.839798 -1.02357 0.222876 1.30278 
198 1 15.9562 7.55818 0 0.0323483 0.931287 0.194755 
199 1 15.9562 6.71838 0.839798 1.76763 2.42366 -2.81572 
201 1 0 8.39798 0 0.939116 -0.208512 -0.541438 
203 1 0.839798 8.39798 0.839798 1.19676 -2.18409 1.07715 
205 1 1.6796 8.39798 0 2.10997 2.18602 2.51734 
207 1 2.51939 8.39798 0.839798 0.197033 -2.33104 -0.228816 
209 1 3.35919 8.39798 0 -0.21785 0.937314 -1.37046 
211 1 4.19899 8.39798 0.839798 -0.600785 2.67867 -0.705389 
213 1 5.03879 8.39798 0 -1.43318 1.29472 -2.56256 
215 1 5.87859 8.39798 0.839798 2.0492 -2.78176 -0.217581 
217 1 6.71838 8.39798 0 -0.0171852 -2.6607 1.50472 
219 1 7.55818 8.39798 0.839798 -1.41597 0.217995 -2.07436 
221 1 8.39798 8.39798 0 -0.859877 -1.57313 1.69117 
223 1 9.23778 8.39798 0.839798 1.76806 -2.38367 -1.36749 
225 1 10.0776 8.39798 0 -2.64499 0.36058 -1.6494 
227 1 10.9174 8.39798 0.839798 -1.06538 -0.560132 1.10072 
229 1 11.7572 8.39798 0 0.420854 2.0591 -0.855954 
231 1 12.597 8.39798 0.839798 2.68703 1.91324 -1.85097 
233 1 13.4368 8.39798 0 -2.74393 1.39859 0.537024 
235 1 14.2766 8.39798 0.839798 -2.99125 1.39631 -1.42232 
237 1 15.1164 8.39798 0 0.323785 -1.78565 -0.228041 
239 1 15.9562 8.39798 0.839798 1.44527 -0.208239 -2.01357 
202 1 0.839798 9.23778 0 1.84051 -0.927787 -0.518796 
204 1 0 9.23778 0.839798 2.43652 2.58416 2.29717 
241 1 0 10.0776 0 -1.22133 -1.76703 -1.89534 
243 1 0.839798 10.0776 0.839798 1.49501 0.806104 1.81844 
206 1 2.51939 9.23778 0 -0.301368 0.960476 0.695059 
208 1 1.6796 9.23778 0.839798 -1.80469 1.49664 2.85502 
245 1 1.6796 10.0776 0 0.670179 -0.521137 -2.99877 
247 1 2.51939 10.0776 0.839798 1.03288 2.46502 2.537 
210 1 4.19899 9.23778 0 2.77951 1.14491 2.69444 
212 1 3.35919 9.23778 0.839798 -0.711423 0.691566 0.830681 
249 1 3.35919 10.0776 0 -1.21904 0.334849 1.53024 
251 1 4.19899 10.0776 0.839798 -0.967228 -2.78238 1.43038 
214 1 5.87859 9.23778 0 0.324931 -0.678074 -2.63446 
216 1 5.03879 9.23778 0.839798 -0.541028 2.62833 0.346928 
253 1 5.03879 10.0776 0 1.77483 2.50893 2.32876 
255 1 5.87859 10.0776 0.839798 -2.42093 2.83754 1.28168 
218 1 7.55818 9.23778 0 0.674095 -1.25302 2.87547 
220 1 6.71838 9.23778 0.839798 1.02075 -1.63888 -2.17743 
257 1 6.71838 10.0776 0 -0.0780812 2.4437 1.15978 
259 1 7.55818 10.0776 0.839798 -2.15887 2.43235 -2.03453 
224 1 8.39798 9.23778 0.839798 -1.83823 0.496477 1.34217 
261 1 8.39798 10.0776 0 -1.30195 -1.56209 -0.268234 
222 1 9.23778 9.23778 0 0.0429502 -2.39756 1.09259 
228 1 10.0776 9.23778 0.839798 -0.698853 0.175939 -1.00016 
263 1 9.23778 10.0776 0.839798 2.59146 -0.948859 2.30678 
265 1 10.0776 10.0776 0 2.8483 1.67834 1.13969 
226 1 10.9174 9.23778 0 -2.34519 -0.879443 1.24182 
232 1 11.7572 9.23778 0.839798 -1.8999 -1.39497 1.14236 
267 1 10.9174 10.0776 0.839798 1.44156 -2.17143 2.01158 
269 1 11.7572 10.0776 0 0.176264 -0.479868 0.852515 
230 1 12.597 9.23778 0 -2.14857 0.0758584 -1.02091 
236 1 13.4368 9.23778 0.839798 2.46112 -1.40132 -2.73068 
271 1 12.597 10.0776 0.839798 2.19767 -0.252357 0.714307 
273 1 13.4368 10.0776 0 -1.57012 -1.07971 -0.647019 
234 1 14.2766 9.23778 0 0.267357 -0.25161 1.17187 
240 1 15.1164 9.23778 0.839798 0.213209 -2.73945 -3.01157 
275 1 14.2766 10.0776 0.839798 -2.11023 -2.98218 1.48359 
277 1 15.1164 10.0776 0 1.07842 -0.490279 1.33679 
238 1 15.9562 9.23778 0 -0.885198 2.44281 -1.61138 
279 1 15.9562 10.0776 0.839798 -2.83543 0.410029 0.529085 
242 1 0.839798 10.9174 0 2.64919 1.21069 0.982055 
244 1 0 10.9174 0.839798 -2.6943 0.586461 1.07741 
281 1 0 11.7572 0 -1.32345 0.245443 -0.599388 
283 1 0.839798 11.7572 0.839798 -1.19235 1.25803 -2.12003 
246 1 2.51939 10.9174 0 2.07812 -0.733324 0.553989 
248 1 1.6796 10.9174 0.839798 -2.61232 -1.12122 -2.41901 
285 1 1.6796 11.7572 0 -2.22395 -2.20339 -2.67452 
287 1 2.51939 11.7572 0.839798 -1.28311 0.539275 0.642706 
250 1 4.19899 10.9174 0 -0.0006894 2.31124 1.47511 
252 1 3.35919 10.9174 0.839798 -2.41089 2.04235 2.02067 
289 1 3.35919 11.7572 0 -1.92553 -2.6057 0.16984 
291 1 4.19899 11.7572 0.839798 -0.314276 1.83363 -2.72293 
254 1 5.87859 10.9174 0 0.722953 -2.97806 -1.86397 
256 1 5.03879 10.9174 0.839798 -2.73381 2.06022 -0.175794 
293 1 5.03879 11.7572 0 1.09079 1.68117 0.316619 
295 1 5.87859 11.7572 0.839798 -0.668729 -1.77053 -0.296376 
258 1 7.55818 10.9174 0 -0.499906 -2.0432 -2.79419 
260 1 6.71838 10.9174 0.839798 -1.19088 1.76823 -0.723064 
297 1 6.71838 11.7572 0 2.72637 -2.60771 2.68966 
299 1 7.55818 11.7572 0.839798 -0.30894 0.765927 -1.82968 
264 1 8.39798 10.9174 0.839798 0.313265 2.91276 0.906536 
301 1 8.39798 11.7572 0 -1.04585 0.805913 -1.39576 
262 1 9.23778 10.9174 0 1.24717 -2.00536 -2.11063 
268 1 10.0776 10.9174 0.839798 0.304048 -0.727853 1.75669 
303 1 9.23778 11.7572 0.839798 2.83762 -2.29206 1.55474 
305 1 10.0776 11.7572 0 1.21128 -0.106966 -0.0937391 
266 1 10.9174 10.9174 0 0.672206 -2.75447 -1.29458 
272 1 11.7572 10.9174 0.839798 -3.02305 -0.611814 -2.28655 
307 1 10.9174 11.7572 0.839798 1.16036 -2.87061 0.900228 
309 1 11.7572 11.7572 0 -0.771115 1.82838 -0.203416 
270 1 12.597 10.9174 0 2.49421 -1.94401 0.3431 
276 1 13.4368 10.9174 0.839798 2.44445 2.77605 2.47242 
311 1 12.597 11.7572 0.839798 -2.99504 -1.811 -2.79607 
313 1 13.4368 11.7572 0 -2.60293 -0.517861 -2.39746 
274 1 14.2766 10.9174 0 0.125959 1.11559 -0.0358751 
280 1 15.1164 10.9174 0.839798 -0.0428688 1.31003 0.644209 
315 1 14.2766 11.7572 0.839798 -1.64176 -0.979534 1.03862 
317 1 15.1164 11.7572 0 1.04934 0.82433 -0.427606 
278 1 15.9562 10.9174 0 -2.20738 -1.99573 2.31415 
319 1 15.9562 11.7572 0.839798 2.23616 -0.664192 0.766398 
282 1 0.839798 12.597 0 2.00185 0.108135 2.95361 
284 1 0 12.597 0.839798 1.8281 2.25942 1.91063 
321 1 0 13.4368 0 0.665501 -0.494231 1.47212 
323 1 0.839798 13.4368 0.839798 0.992992 -2.28743 0.590804 
286 1 2.51939 12.597 0 0.307859 2.81742 1.83077 
288 1 1.6796 12.597 0.839798 -2.37385 1.371 2.86032 
325 1 1.6796 13.4368 0 -1.5563 1.35854 -0.900875 
327 1 2.51939 13.4368 0.839798 0.803543 2.23945 -0.984259 
290 1 4.19899 12.597 0 0.515636 -2.26268 -0.854405 
292 1 3.35919 12.597 0.839798 -2.49591 1.17132 -1.18264 
329 1 3.35919 13.4368 0 1.88329 -1.94939 0.650401 
331 1 4.19899 13.4368 0.839798 -2.79506 1.24279 1.96217 
294 1 5.87859 12.597 0 -1.1691 -1.24086 1.65296 
296 1 5.03879 12.597 0.839798 0.200997 -2.26607 2.72848 
333 1 5.03879 13.4368 0 -2.21092 -1.10868 2.65459 
335 1 5.87859 13.4368 0.839798 -2.44266 0.555115 0.64619 
298 1 7.55818 12.597 0 -2.37676 0.86789 -0.424926 
300 1 6.71838 12.597 0.839798 -0.919731 2.8798 -2.47732 
337 1 6.71838 13.4368 0 -2.19124 2.89263 1.42536 
339 1 7.55818 13.4368 0.839798 1.77521 2.73811 0.0338051 
304 1 8.39798 12.597 0.839798 0.260631 1.67393 -0.351756 
341 1 8.39798 13.4368 0 2.62867 1.18993 -3.03415 
302 1 9.23778 12.597 0 0.993803 -0.759499 2.31773 
308 1 10.0776 12.597 0.839798 -0.306578 -1.89681 1.04312 
343 1 9.23778 13.4368 0.839798 2.12036 1.27864 -0.587042 
345 1 10.0776 13.4368 0 -2.88755 1.82544 -1.12911 
306 1 10.9174 12.597 0 -0.501585 -0.00431002 0.848116 
312 1 11.7572 12.597 0.839798 2.43924 -0.0850206 -0.344063 
347 1 10.9174 13.4368 0.839798 -1.45397 2.85387 -2.65224 
349 1 11.7572 13.4368 0 2.52068 1.3279 -1.51328 
310 1 12.597 12.597 0 1.55438 0.221818 1.67334 
316 1 13.4368 12.597 0.839798 2.31956 -2.80737 -0.977083 
351 1 12.597 13.4368 0.839798 -2.44328 2.27373 0.315448 
353 1 13.4368 13.4368 0 1.08522 -1.1808 0.664405 
314 1 14.2766 12.597 0 -1.97481 -1.84004 -0.738204 
320 1 15.1164 12.597 0.839798 1.19125 1.98551 2.6344 
355 1 14.2766 13.4368 0.839798 -1.84193 -1.16465 -0.201858 
357 1 15.1164 13.4368 0 -2.5168 0.998284 0.831497 
318 1 15.9562 12.597 0 -2.98776 -0.446481 -0.717093 
359 1 15.9562 13.4368 0.839798 2.16405 -2.5286 1.1357 
322 1 0.839798 14.2766 0 -2.71517 0.79741 0.912905 
324 1 0 14.2766 0.839798 2.6283 0.912167 -0.48368 
361 1 0 15.1164 0 2.30738 -1.64177 -2.38032 
363 1 0.839798 15.1164 0.839798 2.54673 -2.61532 1.77505 
326 1 2.51939 14.2766 0 -0.824425 1.30607 0.611575 
328 1 1.6796 14.2766 0.839798 1.4413 -0.460971 -2.23199 
365 1 1.6796 15.1164 0 1.92832 -1.46047 1.34928 
367 1 2.51939 15.1164 0.839798 -0.580101 -0.620482 -2.76984 
330 1 4.19899 14.2766 0 -0.110199 1.13461 -1.01727 
332 1 3.35919 14.2766 0.839798 -1.12607 1.95062 -2.93459 
369 1 3.35919 15.1164 0 0.180929 -0.724031 -0.565132 
371 1 4.19899 15.1164 0.839798 -1.30046 -0.586547 -1.1593 
334 1 5.87859 14.2766 0 1.12741 0.0624798 -2.00689 
336 1 5.03879 14.2766 0.839798 1.72811 -2.30361 1.0218 
373 1 5.03879 15.1164 0 -1.73091 1.10936 -1.94811 
375 1 5.87859 15.1164 0.839798 0.237696 -2.62516 -0.168826 
338 1 7.55818 14.2766 0 -2.07003 1.17508 1.48967 
340 1 6.71838 14.2766 0.839798 1.25898 2.89059 -2.70102 
377 1 6.71838 15.1164 0 1.92208 2.67509 -0.307967 
379 1 7.55818 15.1164 0.839798 -2.83913 -1.33491 0.0627435 
344 1 8.39798 14.2766 0.839798 -2.26781 -1.24611 -1.98783 
381 1 8.39798 15.1164 0 1.18072 0.495765 1.46767 
342 1 9.23778 14.2766 0 0.498768 -1.39455 2.00845 
348 1 10.0776 14.2766 0.839798 -0.325609 -1.06543 -2.57827 
383 1 9.23778 15.1164 0.839798 -0.549842 -0.288828 -1.14971 
385 1 10.0776 15.1164 0 -1.55433 -1.77734 0.136301 
346 1 10.9174 14.2766 0 -0.782282 1.70593 -0.967872 
352 1 11.7572 14.2766 0.839798 -2.71118 1.22156 2.14051 
387 1 10.9174 15.1164 0.839798 -2.11612 1.04091 -2.74175 
389 1 11.7572 15.1164 0 -0.914106 0.615185 -0.200497 
350 1 12.597 14.2766 0 -1.62986 -0.647614 1.06966 
356 1 13.4368 14.2766 0.839798 -2.51573 0.73365 0.22798 
391 1 12.597 15.1164 0.839798 2.8488 -2.04602 -1.8337 
393 1 13.4368 15.1164 0 1.46712 -2.14463 -1.29831 
354 1 14.2766 14.2766 0 -0.707874 -0.165184 1.60465 
360 1 15.1164 14.2766 0.839798 0.284328 0.60388 -2.63516 
395 1 14.2766 15.1164 0.839798 -1.76865 2.21784 -1.15586 
397 1 15.1164 15.1164 0 0.856564 -2.09802 1.46728 
358 1 15.9562 14.2766 0 0.181977 -1.25844 2.63845 
399 1 15.9562 15.1164 0.839798 1.41986 2.17704 2.94116 
362 1 0.839798 15.9562 0 1.60028 -2.75342 -1.94467 
364 1 0 15.9562 0.839798 0.159093 1.35735 -2.67982 
366 1 2.51939 15.9562 0 1.98791 1.78532 2.23833 
368 1 1.6796 15.9562 0.839798 1.64799 0.479332 -2.44521 
370 1 4.19899 15.9562 0 2.94797 0.840434 -2.0493 
372 1 3.35919 15.9562 0.839798 0.134962 1.16052 -1.24221 
374 1 5.87859 15.9562 0 -0.756433 0.520482 -0.584373 
376 1 5.03879 15.9562 0.839798 2.06735 -0.24596 -0.685792 
378 1 7.55818 15.9562 0 -0.980451 -1.14821 -2.19339 
380 1 6.71838 15.9562 0.839798 -2.46341 2.82826 2.53363 
384 1 8.39798 15.9562 0.839798 -2.10265 -2.6406 0.528275 
382 1 9.23778 15.9562 0 1.10347 3.00125 -0.341061 
388 1 10.0776 15.9562 0.839798 1.87325 -1.31165 -2.28579 
386 1 10.9174 15.9562 0 -0.477426 0.645364 -1.21955 
392 1 11.7572 15.9562 0.839798 -1.99561 -0.493174 1.08465 
390 1 12.597 15.9562 0 2.21665 -1.94742 -2.42705 
396 1 13.4368 15.9562 0.839798 -2.65239 -2.87942 -1.82633 
394 1 14.2766 15.9562 0 -0.80315 1.90121 1.65686 
400 1 15.1164 15.9562 0.839798 1.46503 -1.00961 -2.32157 
398 1 15.9562 15.9562 0 0.600818 1.48 1.41765 
401 1 0 0 1.6796 2.7991 -2.29466 0.179273 
402 1 0.839798 0.839798 1.6796 1.74723 -1.56447 2.11578 
403 1 0.839798 0 2.51939 3.02465 0.914071 1.27219 
404 1 0 0.839798 2.51939 1.11647 -2.3013 -2.58247 
405 1 1.6796 0 1.6796 -1.53197 -1.19786 -1.68669 
406 1 2.51939 0.839798 1.6796 0.137434 0.353752 -1.44265 
407 1 2.51939 0 2.51939 -0.402462 2.07439 2.01451 
408 1 1.6796 0.839798 2.51939 1.15616 -0.870216 -1.00208 
409 1 3.35919 0 1.6796 -1.67383 -1.53863 0.649429 
410 1 4.19899 0.839798 1.6796 1.70095 1.08845 -2.46782 
411 1 4.19899 0 2.51939 1.32942 0.903066 -2.17845 
412 1 3.35919 0.839798 2.51939 0.206214 0.706761 2.09122 
413 1 5.03879 0 1.6796 1.74012 -0.0733389 2.37419 
414 1 5.87859 0.839798 1.6796 1.8903 0.865235 -2.69258 
415 1 5.87859 0 2.51939 -0.658461 1.4006 -1.94652 
416 1 5.03879 0.839798 2.51939 1.69521 1.41995 2.71486 
417 1 6.71838 0 1.6796 -2.39333 0.786431 -2.09668 
418 1 7.55818 0.839798 1.6796 0.947707 -1.04629 -1.58872 
419 1 7.55818 0 2.51939 1.02399 -1.67916 -1.42319 
420 1 6.71838 0.839798 2.51939 -0.130327 1.66869 2.26383 
421 1 8.39798 0 1.6796 -1.45344 -0.311058 0.34881 
424 1 8.39798 0.839798 2.51939 -1.48014 -1.27449 -0.884388 
422 1 9.23778 0.839798 1.6796 1.37066 -1.8738 0.479482 
423 1 9.23778 0 2.51939 1.23829 0.0544311 1.87935 
425 1 10.0776 0 1.6796 -2.05863 -0.93022 0.938513 
428 1 10.0776 0.839798 2.51939 -2.04963 -0.900019 0.287301 
426 1 10.9174 0.839798 1.6796 1.79734 -0.451495 -0.278063 
427 1 10.9174 0 2.51939 -0.580362 1.04248 -0.553909 
429 1 11.7572 0 1.6796 2.21747 -0.233429 -1.8378 
432 1 11.7572 0.839798 2.51939 -2.81644 -1.08671 2.71372 
430 1 12.597 0.839798 1.6796 1.68655 1.02029 1.67182 
431 1 12.597 0 2.51939 1.57986 -1.15616 -2.84678 
433 1 13.4368 0 1.6796 2.65301 -1.17241 2.48378 
436 1 13.4368 0.839798 2.51939 2.02528 0.592325 2.82102 
434 1 14.2766 0.839798 1.6796 -1.74244 0.970253 1.6492 
435 1 14.2766 0 2.51939 2.69771 -0.164061 2.33676 
437 1 15.1164 0 1.6796 -3.00621 -2.02342 2.96313 
440 1 15.1164 0.839798 2.51939 0.144617 0.0780902 0.186369 
438 1 15.9562 0.839798 1.6796 1.54788 -0.0864507 -0.178673 
439 1 15.9562 0 2.51939 -0.0693516 -2.10034 -1.2295 
441 1 0 1.6796 1.6796 -0.00983317 -0.105859 0.348991 
442 1 0.839798 2.51939 1.6796 -1.6407 -1.29754 -1.03569 
443 1 0.839798 1.6796 2.51939 2.23945 0.0622792 0.672756 
444 1 0 2.51939 2.51939 0.477009 1.97783 0.587858 
445 1 1.6796 1.6796 1.6796 1.51153 0.0580265 1.80228 
446 1 2.51939 2.51939 1.6796 -2.0997 -1.43135 0.736829 
447 1 2.51939 1.6796 2.51939 0.378086 -2.78464 -0.132849 
448 1 1.6796 2.51939 2.51939 1.68029 -1.29449 1.79896 
449 1 3.35919 1.6796 1.6796 2.65721 2.91851 0.668504 
450 1 4.19899 2.51939 1.6796 1.63229 2.76856 -2.52306 
451 1 4.19899 1.6796 2.51939 -1.33043 -2.13197 -0.351855 
452 1 3.35919 2.51939 2.51939 -0.451296 -1.87215 -1.92621 
453 1 5.03879 1.6796 1.6796 -1.74878 -2.77365 2.92324 
454 1 5.87859 2.51939 1.6796 2.75481 -2.50885 0.314486 
455 1 5.87859 1.6796 2.51939 -0.715449 -0.432232 2.80488 
456 1 5.03879 2.51939 2.51939 -1.94069 2.87632 -0.433374 
457 1 6.71838 1.6796 1.6796 2.92307 -0.110202 -0.0408682 
458 1 7.55818 2.51939 1.6796 -1.32207 -0.788219 -2.38805 
459 1 7.55818 1.6796 2.51939 -1.13014 0.0969135 1.92288 
460 1 6.71838 2.51939 2.51939 -2.11602 2.69265 -1.71565 
461 1 8.39798 1.6796 1.6796 -2.54819 -0.251292 0.461179 
464 1 8.39798 2.51939 2.51939 1.41165 -2.63753 -2.37953 
462 1 9.23778 2.51939 1.6796 2.20419 0.392879 2.70488 
463 1 9.23778 1.6796 2.51939 -0.579092 -1.80884 -2.81449 
465 1 10.0776 1.6796 1.6796 2.8163 2.36534 -2.77758 
468 1 10.0776 2.51939 2.51939 1.59163 -2.94137 -2.34968 
466 1 10.9174 2.51939 1.6796 -1.4345 -2.62072 1.87267 
467 1 10.9174 1.6796 2.51939 1.18308 -2.2193 2.22729 
469 1 11.7572 1.6796 1.6796 2.35352 -0.777935 1.03898 
472 1 11.7572 2.51939 2.51939 2.25508 2.57569 -0.966483 
470 1 12.597 2.51939 1.6796 2.24288 -2.6977 2.85782 
471 1 12.597 1.6796 2.51939 -1.68099 -0.881494 -2.9858 
473 1 13.4368 1.6796 1.6796 -2.31626 1.27852 -2.54321 
476 1 13.4368 2.51939 2.51939 -0.186029 -2.7383 -1.95732 
474 1 14.2766 2.51939 1.6796 -1.2152 -1.58409 -1.0013 
475 1 14.2766 1.6796 2.51939 -0.555549 0.591221 2.42195 
477 1 15.1164 1.6796 1.6796 1.74782 2.30733 2.31856 
480 1 15.1164 2.51939 2.51939 2.89088 -2.73869 -2.44415 
478 1 15.9562 2.51939 1.6796 -1.3777 1.95895 -2.0639 
479 1 15.9562 1.6796 2.51939 1.4252 1.25486 -0.911454 
481 1 0 3.35919 1.6796 -0.17505 0.267402 -0.617822 
482 1 0.839798 4.19899 1.6796 0.750897 0.800222 -0.2333 
483 1 0.839798 3.35919 2.51939 1.48799 -2.2908 -1.47449 
484 1 0 4.19899 2.51939 2.91625 0.239181 -2.98804 
485 1 1.6796 3.35919 1.6796 0.925251 2.73259 -2.0124 
486 1 2.51939 4.19899 1.6796 1.6157 2.21967 -0.62204 
487 1 2.51939 3.35919 2.51939 2.46661 0.0766522 0.219454 
488 1 1.6796 4.19899 2.51939 -0.601823 -2.66411 -1.31751 
489 1 3.35919 3.35919 1.6796 -2.85909 2.0003 -2.78942 
490 1 4.19899 4.19899 1.6796 -0.654512 1.21332 2.81505 
491 1 4.19899 3.35919 2.51939 -0.487067 1.979 2.24047 
492 1 3.35919 4.19899 2.51939 -0.895239 -2.95365 -3.041 
493 1 5.03879 3.35919 1.6796 0.207128 -2.08512 0.448515 
494 1 5.87859 4.19899 1.6796 1.12244 1.23018 1.85321 
495 1 5.87859 3.35919 2.51939 0.805059 -2.53054 -1.24997 
496 1 5.03879 4.19899 2.51939 0.923704 0.931202 -1.23645 
497 1 6.71838 3.35919 1.6796 -1.85122 -0.0888546 1.77305 
498 1 7.55818 4.19899 1.6796 2.867 1.29716 2.05013 
499 1 7.55818 3.35919 2.51939 0.895537 -0.538687 -1.49794 
500 1 6.71838 4.19899 2.51939 2.04145 0.0376937 -1.1034 
501 1 8.39798 3.35919 1.6796 1.75662 -1.12197 -2.90797 
504 1 8.39798 4.19899 2.51939 -1.69331 -2.14111 -2.62121 
502 1 9.23778 4.19899 1.6796 -2.51874 -1.46954 0.151489 
503 1 9.23778 3.35919 2.51939 0.659146 1.60462 2.40566 
505 1 10.0776 3.35919 1.6796 0.830074 0.410687 -0.511474 
508 1 10.0776 4.19899 2.51939 0.729119 -2.19042 -2.55784 
506 1 10.9174 4.19899 1.6796 -2.80037 2.80036 -0.392763 
507 1 10.9174 3.35919 2.51939 1.75732 -1.35752 1.24661 
509 1 11.7572 3.35919 1.6796 0.908647 1.98927 -0.68109 
512 1 11.7572 4.19899 2.51939 -2.86803 3.02329 1.08033 
510 1 12.597 4.19899 1.6796 2.29399 -2.93783 2.71872 
511 1 12.597 3.35919 2.51939 2.03522 -1.71481 -1.70415 
513 1 13.4368 3.35919 1.6796 1.45429 0.0125591 -0.00499987 
516 1 13.4368 4.19899 2.51939 1.24487 1.795 1.45323 
514 1 14.2766 4.19899 1.6796 2.5176 -2.11732 -2.22293 
515 1 14.2766 3.35919 2.51939 2.92562 0.356173 2.93503 
517 1 15.1164 3.35919 1.6796 0.399357 -2.25248 1.24365 
520 1 15.1164 4.19899 2.51939 -2.20319 1.76347 -2.05567 
518 1 15.9562 4.19899 1.6796 -0.620104 -1.34439 -1.8845 
519 1 15.9562 3.35919 2.51939 -2.74167 -2.94472 1.73927 
521 1 0 5.03879 1.6796 0.446839 -2.89934 2.19859 
522 1 0.839798 5.87859 1.6796 -2.91597 2.07975 1.29945 
523 1 0.839798 5.03879 2.51939 -0.601265 0.662603 -1.91025 
524 1 0 5.87859 2.51939 0.163326 -0.111171 1.83894 
525 1 1.6796 5.03879 1.6796 -3.00312 1.55923 1.99474 
526 1 2.51939 5.87859 1.6796 1.63098 -1.074 -1.49634 
527 1 2.51939 5.03879 2.51939 -1.21897 1.54568 -1.97152 
528 1 1.6796 5.87859 2.51939 -1.04084 0.398514 0.617513 
529 1 3.35919 5.03879 1.6796 -2.25965 2.84964 -1.16643 
530 1 4.19899 5.87859 1.6796 1.27444 2.63136 2.91687 
531 1 4.19899 5.03879 2.51939 -1.39179 1.20142 2.38241 
532 1 3.35919 5.87859 2.51939 0.807708 -0.352485 -0.11083 
533 1 5.03879 5.03879 1.6796 2.67735 2.46356 2.22564 
534 1 5.87859 5.87859 1.6796 -2.02973 0.718554 0.627457 
535 1 5.87859 5.03879 2.51939 1.50213 -0.657844 -1.44894 
536 1 5.03879 5.87859 2.51939 2.78101 2.23974 -2.16763 
537 1 6.71838 5.03879 1.6796 0.524521 1.8493 0.40911 
538 1 7.55818 5.87859 1.6796 -1.65647 -0.242861 2.99066 
539 1 7.55818 5.03879 2.51939 -1.60955 1.87568 2.24953 
540 1 6.71838 5.87859 2.51939 0.194068 2.28935 2.6348 
541 1 8.39798 5.03879 1.6796 1.44682 1.63136 -1.87592 
544 1 8.39798 5.87859 2.51939 2.31474 0.88328 -1.9464 
542 1 9.23778 5.87859 1.6796 2.30966 0.359616 0.299924 
543 1 9.23778 5.03879 2.51939 2.61401 2.85123 1.37954 
545 1 10.0776 5.03879 1.6796 -2.38292 0.28217 -0.47448 
548 1 10.0776 5.87859 2.51939 -0.0136605 2.12377 -3.05241 
546 1 10.9174 5.87859 1.6796 1.81355 -0.296772 -1.56407 
547 1 10.9174 5.03879 2.51939 -2.06329 -0.603473 -1.26262 
549 1 11.7572 5.03879 1.6796 2.09986 1.65385 0.957066 
552 1 11.7572 5.87859 2.51939 -2.04703 0.387984 -0.898558 